! Generated by a Qucs-RFlayout generated OpenEMS script
#   Hz   S  RI   R   50
! 
2.000000e+07   -1.166899e-01  1.827005e-03    8.828022e-01 -5.802616e-02    0.000000e+00  0.000000e+00    0.000000e+00  0.000000e+00
3.000000e+07   -1.168602e-01  2.779236e-03    8.801878e-01 -8.690254e-02    0.000000e+00  0.000000e+00    0.000000e+00  0.000000e+00
4.000000e+07   -1.170897e-01  3.776716e-03    8.765477e-01 -1.156177e-01    0.000000e+00  0.000000e+00    0.000000e+00  0.000000e+00
5.000000e+07   -1.173697e-01  4.832529e-03    8.719014e-01 -1.441223e-01    0.000000e+00  0.000000e+00    0.000000e+00  0.000000e+00
6.000000e+07   -1.176895e-01  5.958137e-03    8.662727e-01 -1.723708e-01    0.000000e+00  0.000000e+00    0.000000e+00  0.000000e+00
7.000000e+07   -1.180367e-01  7.163078e-03    8.596888e-01 -2.003217e-01    0.000000e+00  0.000000e+00    0.000000e+00  0.000000e+00
8.000000e+07   -1.183976e-01  8.454725e-03    8.521800e-01 -2.279385e-01    0.000000e+00  0.000000e+00    0.000000e+00  0.000000e+00
9.000000e+07   -1.187575e-01  9.838121e-03    8.437783e-01 -2.551893e-01    0.000000e+00  0.000000e+00    0.000000e+00  0.000000e+00
1.000000e+08   -1.191012e-01  1.131588e-02    8.345167e-01 -2.820474e-01    0.000000e+00  0.000000e+00    0.000000e+00  0.000000e+00
1.100000e+08   -1.194131e-01  1.288815e-02    8.244282e-01 -3.084911e-01    0.000000e+00  0.000000e+00    0.000000e+00  0.000000e+00
1.200000e+08   -1.196782e-01  1.455266e-02    8.135448e-01 -3.345033e-01    0.000000e+00  0.000000e+00    0.000000e+00  0.000000e+00
1.300000e+08   -1.198820e-01  1.630482e-02    8.018971e-01 -3.600712e-01    0.000000e+00  0.000000e+00    0.000000e+00  0.000000e+00
1.400000e+08   -1.200107e-01  1.813789e-02    7.895132e-01 -3.851855e-01    0.000000e+00  0.000000e+00    0.000000e+00  0.000000e+00
1.500000e+08   -1.200522e-01  2.004319e-02    7.764185e-01 -4.098404e-01    0.000000e+00  0.000000e+00    0.000000e+00  0.000000e+00
1.600000e+08   -1.199958e-01  2.201034e-02    7.626350e-01 -4.340321e-01    0.000000e+00  0.000000e+00    0.000000e+00  0.000000e+00
1.700000e+08   -1.198325e-01  2.402756e-02    7.481814e-01 -4.577585e-01    0.000000e+00  0.000000e+00    0.000000e+00  0.000000e+00
1.800000e+08   -1.195554e-01  2.608200e-02    7.330726e-01 -4.810183e-01    0.000000e+00  0.000000e+00    0.000000e+00  0.000000e+00
1.900000e+08   -1.191597e-01  2.816009e-02    7.173199e-01 -5.038102e-01    0.000000e+00  0.000000e+00    0.000000e+00  0.000000e+00
2.000000e+08   -1.186427e-01  3.024784e-02    7.009313e-01 -5.261323e-01    0.000000e+00  0.000000e+00    0.000000e+00  0.000000e+00
2.100000e+08   -1.180038e-01  3.233124e-02    6.839116e-01 -5.479812e-01    0.000000e+00  0.000000e+00    0.000000e+00  0.000000e+00
2.200000e+08   -1.172446e-01  3.439659e-02    6.662628e-01 -5.693513e-01    0.000000e+00  0.000000e+00    0.000000e+00  0.000000e+00
2.300000e+08   -1.163688e-01  3.643084e-02    6.479850e-01 -5.902346e-01    0.000000e+00  0.000000e+00    0.000000e+00  0.000000e+00
2.400000e+08   -1.153819e-01  3.842191e-02    6.290764e-01 -6.106202e-01    0.000000e+00  0.000000e+00    0.000000e+00  0.000000e+00
2.500000e+08   -1.142911e-01  4.035899e-02    6.095345e-01 -6.304938e-01    0.000000e+00  0.000000e+00    0.000000e+00  0.000000e+00
2.600000e+08   -1.131049e-01  4.223278e-02    5.893564e-01 -6.498375e-01    0.000000e+00  0.000000e+00    0.000000e+00  0.000000e+00
2.700000e+08   -1.118331e-01  4.403573e-02    5.685398e-01 -6.686301e-01    0.000000e+00  0.000000e+00    0.000000e+00  0.000000e+00
2.800000e+08   -1.104863e-01  4.576218e-02    5.470836e-01 -6.868468e-01    0.000000e+00  0.000000e+00    0.000000e+00  0.000000e+00
2.900000e+08   -1.090756e-01  4.740847e-02    5.249885e-01 -7.044596e-01    0.000000e+00  0.000000e+00    0.000000e+00  0.000000e+00
3.000000e+08   -1.076120e-01  4.897304e-02    5.022580e-01 -7.214377e-01    0.000000e+00  0.000000e+00    0.000000e+00  0.000000e+00
3.100000e+08   -1.061066e-01  5.045634e-02    4.788985e-01 -7.377476e-01    0.000000e+00  0.000000e+00    0.000000e+00  0.000000e+00
3.200000e+08   -1.045695e-01  5.186082e-02    4.549201e-01 -7.533542e-01    0.000000e+00  0.000000e+00    0.000000e+00  0.000000e+00
3.300000e+08   -1.030101e-01  5.319074e-02    4.303367e-01 -7.682207e-01    0.000000e+00  0.000000e+00    0.000000e+00  0.000000e+00
3.400000e+08   -1.014361e-01  5.445198e-02    4.051667e-01 -7.823099e-01    0.000000e+00  0.000000e+00    0.000000e+00  0.000000e+00
3.500000e+08   -9.985395e-02  5.565174e-02    3.794328e-01 -7.955848e-01    0.000000e+00  0.000000e+00    0.000000e+00  0.000000e+00
3.600000e+08   -9.826807e-02  5.679825e-02    3.531620e-01 -8.080089e-01    0.000000e+00  0.000000e+00    0.000000e+00  0.000000e+00
3.700000e+08   -9.668085e-02  5.790039e-02    3.263855e-01 -8.195475e-01    0.000000e+00  0.000000e+00    0.000000e+00  0.000000e+00
3.800000e+08   -9.509254e-02  5.896727e-02    2.991387e-01 -8.301678e-01    0.000000e+00  0.000000e+00    0.000000e+00  0.000000e+00
3.900000e+08   -9.350121e-02  6.000784e-02    2.714604e-01 -8.398401e-01    0.000000e+00  0.000000e+00    0.000000e+00  0.000000e+00
4.000000e+08   -9.190278e-02  6.103042e-02    2.433927e-01 -8.485378e-01    0.000000e+00  0.000000e+00    0.000000e+00  0.000000e+00
4.100000e+08   -9.029116e-02  6.204234e-02    2.149801e-01 -8.562380e-01    0.000000e+00  0.000000e+00    0.000000e+00  0.000000e+00
4.200000e+08   -8.865844e-02  6.304951e-02    1.862693e-01 -8.629221e-01    0.000000e+00  0.000000e+00    0.000000e+00  0.000000e+00
4.300000e+08   -8.699517e-02  6.405610e-02    1.573083e-01 -8.685755e-01    0.000000e+00  0.000000e+00    0.000000e+00  0.000000e+00
4.400000e+08   -8.529069e-02  6.506420e-02    1.281456e-01 -8.731882e-01    0.000000e+00  0.000000e+00    0.000000e+00  0.000000e+00
4.500000e+08   -8.353351e-02  6.607363e-02    9.882981e-02 -8.767542e-01    0.000000e+00  0.000000e+00    0.000000e+00  0.000000e+00
4.600000e+08   -8.171175e-02  6.708175e-02    6.940905e-02 -8.792718e-01    0.000000e+00  0.000000e+00    0.000000e+00  0.000000e+00
4.700000e+08   -7.981358e-02  6.808338e-02    3.993016e-02 -8.807432e-01    0.000000e+00  0.000000e+00    0.000000e+00  0.000000e+00
4.800000e+08   -7.782770e-02  6.907080e-02    1.043835e-02 -8.811741e-01    0.000000e+00  0.000000e+00    0.000000e+00  0.000000e+00
4.900000e+08   -7.574381e-02  7.003383e-02   -1.902327e-02 -8.805731e-01    0.000000e+00  0.000000e+00    0.000000e+00  0.000000e+00
5.000000e+08   -7.355304e-02  7.095999e-02   -4.841400e-02 -8.789520e-01    0.000000e+00  0.000000e+00    0.000000e+00  0.000000e+00
5.100000e+08   -7.124838e-02  7.183474e-02   -7.769581e-02 -8.763241e-01    0.000000e+00  0.000000e+00    0.000000e+00  0.000000e+00
5.200000e+08   -6.882504e-02  7.264179e-02   -1.068335e-01 -8.727048e-01    0.000000e+00  0.000000e+00    0.000000e+00  0.000000e+00
5.300000e+08   -6.628080e-02  7.336348e-02   -1.357946e-01 -8.681104e-01    0.000000e+00  0.000000e+00    0.000000e+00  0.000000e+00
5.400000e+08   -6.361623e-02  7.398119e-02   -1.645495e-01 -8.625577e-01    0.000000e+00  0.000000e+00    0.000000e+00  0.000000e+00
5.500000e+08   -6.083488e-02  7.447584e-02   -1.930714e-01 -8.560639e-01    0.000000e+00  0.000000e+00    0.000000e+00  0.000000e+00
5.600000e+08   -5.794340e-02  7.482835e-02   -2.213359e-01 -8.486454e-01    0.000000e+00  0.000000e+00    0.000000e+00  0.000000e+00
5.700000e+08   -5.495152e-02  7.502017e-02   -2.493206e-01 -8.403184e-01    0.000000e+00  0.000000e+00    0.000000e+00  0.000000e+00
5.800000e+08   -5.187202e-02  7.503380e-02   -2.770051e-01 -8.310975e-01    0.000000e+00  0.000000e+00    0.000000e+00  0.000000e+00
5.900000e+08   -4.872053e-02  7.485331e-02   -3.043706e-01 -8.209965e-01    0.000000e+00  0.000000e+00    0.000000e+00  0.000000e+00
6.000000e+08   -4.551534e-02  7.446474e-02   -3.313992e-01 -8.100273e-01    0.000000e+00  0.000000e+00    0.000000e+00  0.000000e+00
6.100000e+08   -4.227705e-02  7.385664e-02   -3.580738e-01 -7.982004e-01    0.000000e+00  0.000000e+00    0.000000e+00  0.000000e+00
6.200000e+08   -3.902817e-02  7.302036e-02   -3.843775e-01 -7.855247e-01    0.000000e+00  0.000000e+00    0.000000e+00  0.000000e+00
6.300000e+08   -3.579270e-02  7.195041e-02   -4.102930e-01 -7.720072e-01    0.000000e+00  0.000000e+00    0.000000e+00  0.000000e+00
6.400000e+08   -3.259559e-02  7.064468e-02   -4.358028e-01 -7.576537e-01    0.000000e+00  0.000000e+00    0.000000e+00  0.000000e+00
6.500000e+08   -2.946225e-02  6.910460e-02   -4.608880e-01 -7.424687e-01    0.000000e+00  0.000000e+00    0.000000e+00  0.000000e+00
6.600000e+08   -2.641790e-02  6.733518e-02   -4.855287e-01 -7.264553e-01    0.000000e+00  0.000000e+00    0.000000e+00  0.000000e+00
6.700000e+08   -2.348708e-02  6.534499e-02   -5.097030e-01 -7.096162e-01    0.000000e+00  0.000000e+00    0.000000e+00  0.000000e+00
6.800000e+08   -2.069306e-02  6.314599e-02   -5.333874e-01 -6.919537e-01    0.000000e+00  0.000000e+00    0.000000e+00  0.000000e+00
6.900000e+08   -1.805729e-02  6.075335e-02   -5.565564e-01 -6.734697e-01    0.000000e+00  0.000000e+00    0.000000e+00  0.000000e+00
7.000000e+08   -1.559893e-02  5.818507e-02   -5.791820e-01 -6.541668e-01    0.000000e+00  0.000000e+00    0.000000e+00  0.000000e+00
7.100000e+08   -1.333443e-02  5.546163e-02   -6.012343e-01 -6.340484e-01    0.000000e+00  0.000000e+00    0.000000e+00  0.000000e+00
7.200000e+08   -1.127717e-02  5.260548e-02   -6.226811e-01 -6.131191e-01    0.000000e+00  0.000000e+00    0.000000e+00  0.000000e+00
7.300000e+08   -9.437169e-03  4.964053e-02   -6.434881e-01 -5.913852e-01    0.000000e+00  0.000000e+00    0.000000e+00  0.000000e+00
7.400000e+08   -7.820979e-03  4.659160e-02   -6.636192e-01 -5.688551e-01    0.000000e+00  0.000000e+00    0.000000e+00  0.000000e+00
7.500000e+08   -6.431563e-03  4.348380e-02   -6.830365e-01 -5.455397e-01    0.000000e+00  0.000000e+00    0.000000e+00  0.000000e+00
7.600000e+08   -5.268362e-03  4.034200e-02   -7.017009e-01 -5.214527e-01    0.000000e+00  0.000000e+00    0.000000e+00  0.000000e+00
7.700000e+08   -4.327429e-03  3.719020e-02   -7.195723e-01 -4.966110e-01    0.000000e+00  0.000000e+00    0.000000e+00  0.000000e+00
7.800000e+08   -3.601671e-03  3.405104e-02   -7.366097e-01 -4.710347e-01    0.000000e+00  0.000000e+00    0.000000e+00  0.000000e+00
7.900000e+08   -3.081183e-03  3.094535e-02   -7.527724e-01 -4.447477e-01    0.000000e+00  0.000000e+00    0.000000e+00  0.000000e+00
8.000000e+08   -2.753652e-03  2.789169e-02   -7.680197e-01 -4.177771e-01    0.000000e+00  0.000000e+00    0.000000e+00  0.000000e+00
8.100000e+08   -2.604832e-03  2.490609e-02   -7.823118e-01 -3.901540e-01    0.000000e+00  0.000000e+00    0.000000e+00  0.000000e+00
8.200000e+08   -2.619059e-03  2.200180e-02   -7.956102e-01 -3.619130e-01    0.000000e+00  0.000000e+00    0.000000e+00  0.000000e+00
8.300000e+08   -2.779801e-03  1.918919e-02   -8.078780e-01 -3.330922e-01    0.000000e+00  0.000000e+00    0.000000e+00  0.000000e+00
8.400000e+08   -3.070206e-03  1.647571e-02   -8.190806e-01 -3.037330e-01    0.000000e+00  0.000000e+00    0.000000e+00  0.000000e+00
8.500000e+08   -3.473646e-03  1.386603e-02   -8.291860e-01 -2.738797e-01    0.000000e+00  0.000000e+00    0.000000e+00  0.000000e+00
8.600000e+08   -3.974229e-03  1.136220e-02   -8.381653e-01 -2.435794e-01    0.000000e+00  0.000000e+00    0.000000e+00  0.000000e+00
8.700000e+08   -4.557254e-03  8.963956e-03   -8.459927e-01 -2.128816e-01    0.000000e+00  0.000000e+00    0.000000e+00  0.000000e+00
8.800000e+08   -5.209606e-03  6.669081e-03   -8.526461e-01 -1.818376e-01    0.000000e+00  0.000000e+00    0.000000e+00  0.000000e+00
8.900000e+08   -5.920065e-03  4.473875e-03   -8.581072e-01 -1.505002e-01    0.000000e+00  0.000000e+00    0.000000e+00  0.000000e+00
9.000000e+08   -6.679518e-03  2.373641e-03   -8.623615e-01 -1.189230e-01    0.000000e+00  0.000000e+00    0.000000e+00  0.000000e+00
9.100000e+08   -7.481072e-03  3.632252e-04   -8.653985e-01 -8.716011e-02    0.000000e+00  0.000000e+00    0.000000e+00  0.000000e+00
9.200000e+08   -8.320048e-03 -1.562429e-03   -8.672116e-01 -5.526553e-02    0.000000e+00  0.000000e+00    0.000000e+00  0.000000e+00
9.300000e+08   -9.193872e-03 -3.407729e-03   -8.677979e-01 -2.329266e-02    0.000000e+00  0.000000e+00    0.000000e+00  0.000000e+00
9.400000e+08   -1.010184e-02 -5.175908e-03   -8.671582e-01  8.706191e-03    0.000000e+00  0.000000e+00    0.000000e+00  0.000000e+00
9.500000e+08   -1.104478e-02 -6.868548e-03   -8.652965e-01  4.068027e-02    0.000000e+00  0.000000e+00    0.000000e+00  0.000000e+00
9.600000e+08   -1.202461e-02 -8.485164e-03   -8.622196e-01  7.258074e-02    0.000000e+00  0.000000e+00    0.000000e+00  0.000000e+00
9.700000e+08   -1.304385e-02 -1.002288e-02   -8.579368e-01  1.043610e-01    0.000000e+00  0.000000e+00    0.000000e+00  0.000000e+00
9.800000e+08   -1.410495e-02 -1.147620e-02   -8.524596e-01  1.359771e-01    0.000000e+00  0.000000e+00    0.000000e+00  0.000000e+00
9.900000e+08   -1.520969e-02 -1.283691e-02   -8.458007e-01  1.673876e-01    0.000000e+00  0.000000e+00    0.000000e+00  0.000000e+00
1.000000e+09   -1.635848e-02 -1.409409e-02   -8.379737e-01  1.985538e-01    0.000000e+00  0.000000e+00    0.000000e+00  0.000000e+00
1.010000e+09   -1.754964e-02 -1.523428e-02   -8.289927e-01  2.294400e-01    0.000000e+00  0.000000e+00    0.000000e+00  0.000000e+00
1.020000e+09   -1.877872e-02 -1.624176e-02   -8.188711e-01  2.600128e-01    0.000000e+00  0.000000e+00    0.000000e+00  0.000000e+00
1.030000e+09   -2.003785e-02 -1.709902e-02   -8.076218e-01  2.902412e-01    0.000000e+00  0.000000e+00    0.000000e+00  0.000000e+00
1.040000e+09   -2.131517e-02 -1.778731e-02   -7.952560e-01  3.200962e-01    0.000000e+00  0.000000e+00    0.000000e+00  0.000000e+00
1.050000e+09   -2.259429e-02 -1.828734e-02   -7.817834e-01  3.495503e-01    0.000000e+00  0.000000e+00    0.000000e+00  0.000000e+00
1.060000e+09   -2.385396e-02 -1.858010e-02   -7.672111e-01  3.785768e-01    0.000000e+00  0.000000e+00    0.000000e+00  0.000000e+00
1.070000e+09   -2.506777e-02 -1.864776e-02   -7.515439e-01  4.071493e-01    0.000000e+00  0.000000e+00    0.000000e+00  0.000000e+00
1.080000e+09   -2.620409e-02 -1.847462e-02   -7.347836e-01  4.352411e-01    0.000000e+00  0.000000e+00    0.000000e+00  0.000000e+00
1.090000e+09   -2.722611e-02 -1.804817e-02   -7.169296e-01  4.628240e-01    0.000000e+00  0.000000e+00    0.000000e+00  0.000000e+00
1.100000e+09   -2.809212e-02 -1.736013e-02   -6.979785e-01  4.898679e-01    0.000000e+00  0.000000e+00    0.000000e+00  0.000000e+00
1.110000e+09   -2.875589e-02 -1.640743e-02   -6.779243e-01  5.163397e-01    0.000000e+00  0.000000e+00    0.000000e+00  0.000000e+00
1.120000e+09   -2.916734e-02 -1.519325e-02   -6.567593e-01  5.422027e-01    0.000000e+00  0.000000e+00    0.000000e+00  0.000000e+00
1.130000e+09   -2.927328e-02 -1.372787e-02   -6.344741e-01  5.674158e-01    0.000000e+00  0.000000e+00    0.000000e+00  0.000000e+00
1.140000e+09   -2.901842e-02 -1.202957e-02   -6.110589e-01  5.919328e-01    0.000000e+00  0.000000e+00    0.000000e+00  0.000000e+00
1.150000e+09   -2.834643e-02 -1.012520e-02   -5.865037e-01  6.157016e-01    0.000000e+00  0.000000e+00    0.000000e+00  0.000000e+00
1.160000e+09   -2.720123e-02 -8.050768e-03   -5.607997e-01  6.386642e-01    0.000000e+00  0.000000e+00    0.000000e+00  0.000000e+00
1.170000e+09   -2.552833e-02 -5.851756e-03   -5.339405e-01  6.607559e-01    0.000000e+00  0.000000e+00    0.000000e+00  0.000000e+00
1.180000e+09   -2.327630e-02 -3.583238e-03   -5.059226e-01  6.819055e-01    0.000000e+00  0.000000e+00    0.000000e+00  0.000000e+00
1.190000e+09   -2.039821e-02 -1.309811e-03   -4.767476e-01  7.020352e-01    0.000000e+00  0.000000e+00    0.000000e+00  0.000000e+00
1.200000e+09   -1.685322e-02  8.947234e-04   -4.464228e-01  7.210608e-01    0.000000e+00  0.000000e+00    0.000000e+00  0.000000e+00
1.210000e+09   -1.260801e-02  2.947904e-03   -4.149626e-01  7.388922e-01    0.000000e+00  0.000000e+00    0.000000e+00  0.000000e+00
1.220000e+09   -7.638274e-03  4.759384e-03   -3.823900e-01  7.554342e-01    0.000000e+00  0.000000e+00    0.000000e+00  0.000000e+00
1.230000e+09   -1.930080e-03  6.231941e-03   -3.487374e-01  7.705868e-01    0.000000e+00  0.000000e+00    0.000000e+00  0.000000e+00
1.240000e+09    4.518901e-03  7.262692e-03   -3.140481e-01  7.842472e-01    0.000000e+00  0.000000e+00    0.000000e+00  0.000000e+00
1.250000e+09    1.169829e-02  7.744523e-03   -2.783771e-01  7.963103e-01    0.000000e+00  0.000000e+00    0.000000e+00  0.000000e+00
1.260000e+09    1.958412e-02  7.567690e-03   -2.417917e-01  8.066702e-01    0.000000e+00  0.000000e+00    0.000000e+00  0.000000e+00
1.270000e+09    2.813809e-02  6.621576e-03   -2.043725e-01  8.152224e-01    0.000000e+00  0.000000e+00    0.000000e+00  0.000000e+00
1.280000e+09    3.730716e-02  4.796580e-03   -1.662135e-01  8.218647e-01    0.000000e+00  0.000000e+00    0.000000e+00  0.000000e+00
1.290000e+09    4.702335e-02  1.986086e-03   -1.274225e-01  8.264999e-01    0.000000e+00  0.000000e+00    0.000000e+00  0.000000e+00
1.300000e+09    5.720379e-02 -1.911500e-03   -8.812072e-02  8.290368e-01    0.000000e+00  0.000000e+00    0.000000e+00  0.000000e+00
1.310000e+09    6.775110e-02 -6.990702e-03   -4.844271e-02  8.293929e-01    0.000000e+00  0.000000e+00    0.000000e+00  0.000000e+00
1.320000e+09    7.855403e-02 -1.333695e-02   -8.535583e-03  8.274958e-01    0.000000e+00  0.000000e+00    0.000000e+00  0.000000e+00
1.330000e+09    8.948839e-02 -2.102463e-02    3.144191e-02  8.232852e-01    0.000000e+00  0.000000e+00    0.000000e+00  0.000000e+00
1.340000e+09    1.004183e-01 -3.011522e-02    7.132056e-02  8.167147e-01    0.000000e+00  0.000000e+00    0.000000e+00  0.000000e+00
1.350000e+09    1.111977e-01 -4.065561e-02    1.109221e-01  8.077536e-01    0.000000e+00  0.000000e+00    0.000000e+00  0.000000e+00
1.360000e+09    1.216718e-01 -5.267655e-02    1.500611e-01  7.963880e-01    0.000000e+00  0.000000e+00    0.000000e+00  0.000000e+00
1.370000e+09    1.316796e-01 -6.619140e-02    1.885466e-01  7.826221e-01    0.000000e+00  0.000000e+00    0.000000e+00  0.000000e+00
1.380000e+09    1.410554e-01 -8.119510e-02    2.261845e-01  7.664794e-01    0.000000e+00  0.000000e+00    0.000000e+00  0.000000e+00
1.390000e+09    1.496315e-01 -9.766338e-02    2.627797e-01  7.480033e-01    0.000000e+00  0.000000e+00    0.000000e+00  0.000000e+00
1.400000e+09    1.572405e-01 -1.155524e-01    2.981384e-01  7.272573e-01    0.000000e+00  0.000000e+00    0.000000e+00  0.000000e+00
1.410000e+09    1.637178e-01 -1.347984e-01    3.320710e-01  7.043254e-01    0.000000e+00  0.000000e+00    0.000000e+00  0.000000e+00
1.420000e+09    1.689038e-01 -1.553184e-01    3.643940e-01  6.793116e-01    0.000000e+00  0.000000e+00    0.000000e+00  0.000000e+00
1.430000e+09    1.726469e-01 -1.770101e-01    3.949328e-01  6.523395e-01    0.000000e+00  0.000000e+00    0.000000e+00  0.000000e+00
1.440000e+09    1.748056e-01 -1.997535e-01    4.235241e-01  6.235514e-01    0.000000e+00  0.000000e+00    0.000000e+00  0.000000e+00
1.450000e+09    1.752505e-01 -2.234113e-01    4.500182e-01  5.931065e-01    0.000000e+00  0.000000e+00    0.000000e+00  0.000000e+00
1.460000e+09    1.738670e-01 -2.478312e-01    4.742808e-01  5.611802e-01    0.000000e+00  0.000000e+00    0.000000e+00  0.000000e+00
1.470000e+09    1.705569e-01 -2.728470e-01    4.961955e-01  5.279618e-01    0.000000e+00  0.000000e+00    0.000000e+00  0.000000e+00
1.480000e+09    1.652399e-01 -2.982812e-01    5.156649e-01  4.936523e-01    0.000000e+00  0.000000e+00    0.000000e+00  0.000000e+00
1.490000e+09    1.578553e-01 -3.239469e-01    5.326123e-01  4.584625e-01    0.000000e+00  0.000000e+00    0.000000e+00  0.000000e+00
1.500000e+09    1.483629e-01 -3.496502e-01    5.469827e-01  4.226101e-01    0.000000e+00  0.000000e+00    0.000000e+00  0.000000e+00
1.510000e+09    1.367436e-01 -3.751928e-01    5.587436e-01  3.863176e-01    0.000000e+00  0.000000e+00    0.000000e+00  0.000000e+00
1.520000e+09    1.230004e-01 -4.003749e-01    5.678851e-01  3.498091e-01    0.000000e+00  0.000000e+00    0.000000e+00  0.000000e+00
1.530000e+09    1.071577e-01 -4.249974e-01    5.744206e-01  3.133082e-01    0.000000e+00  0.000000e+00    0.000000e+00  0.000000e+00
1.540000e+09    8.926163e-02 -4.488646e-01    5.783859e-01  2.770345e-01    0.000000e+00  0.000000e+00    0.000000e+00  0.000000e+00
1.550000e+09    6.937903e-02 -4.717870e-01    5.798387e-01  2.412020e-01    0.000000e+00  0.000000e+00    0.000000e+00  0.000000e+00
1.560000e+09    4.759677e-02 -4.935836e-01    5.788581e-01  2.060158e-01    0.000000e+00  0.000000e+00    0.000000e+00  0.000000e+00
1.570000e+09    2.402044e-02 -5.140844e-01    5.755424e-01  1.716700e-01    0.000000e+00  0.000000e+00    0.000000e+00  0.000000e+00
1.580000e+09   -1.227261e-03 -5.331319e-01    5.700087e-01  1.383456e-01    0.000000e+00  0.000000e+00    0.000000e+00  0.000000e+00
1.590000e+09   -2.800819e-02 -5.505837e-01    5.623900e-01  1.062085e-01    0.000000e+00  0.000000e+00    0.000000e+00  0.000000e+00
1.600000e+09   -5.617082e-02 -5.663138e-01    5.528340e-01  7.540815e-02    0.000000e+00  0.000000e+00    0.000000e+00  0.000000e+00
1.610000e+09   -8.555238e-02 -5.802140e-01    5.415002e-01  4.607560e-02    0.000000e+00  0.000000e+00    0.000000e+00  0.000000e+00
1.620000e+09   -1.159812e-01 -5.921947e-01    5.285584e-01  1.832288e-02    0.000000e+00  0.000000e+00    0.000000e+00  0.000000e+00
1.630000e+09   -1.472789e-01 -6.021859e-01    5.141853e-01 -7.757882e-03    0.000000e+00  0.000000e+00    0.000000e+00  0.000000e+00
1.640000e+09   -1.792632e-01 -6.101376e-01    4.985629e-01 -3.209488e-02    0.000000e+00  0.000000e+00    0.000000e+00  0.000000e+00
1.650000e+09   -2.117501e-01 -6.160197e-01    4.818754e-01 -5.463676e-02    0.000000e+00  0.000000e+00    0.000000e+00  0.000000e+00
1.660000e+09   -2.445563e-01 -6.198220e-01    4.643069e-01 -7.535234e-02    0.000000e+00  0.000000e+00    0.000000e+00  0.000000e+00
1.670000e+09   -2.775016e-01 -6.215533e-01    4.460395e-01 -9.423013e-02    0.000000e+00  0.000000e+00    0.000000e+00  0.000000e+00
1.680000e+09   -3.104110e-01 -6.212410e-01    4.272502e-01 -1.112775e-01    0.000000e+00  0.000000e+00    0.000000e+00  0.000000e+00
1.690000e+09   -3.431169e-01 -6.189296e-01    4.081098e-01 -1.265196e-01    0.000000e+00  0.000000e+00    0.000000e+00  0.000000e+00
1.700000e+09   -3.754609e-01 -6.146797e-01    3.887802e-01 -1.399980e-01    0.000000e+00  0.000000e+00    0.000000e+00  0.000000e+00
1.710000e+09   -4.072952e-01 -6.085663e-01    3.694133e-01 -1.517692e-01    0.000000e+00  0.000000e+00    0.000000e+00  0.000000e+00
1.720000e+09   -4.384843e-01 -6.006769e-01    3.501491e-01 -1.619030e-01    0.000000e+00  0.000000e+00    0.000000e+00  0.000000e+00
1.730000e+09   -4.689060e-01 -5.911103e-01    3.311151e-01 -1.704806e-01    0.000000e+00  0.000000e+00    0.000000e+00  0.000000e+00
1.740000e+09   -4.984523e-01 -5.799738e-01    3.124250e-01 -1.775925e-01    0.000000e+00  0.000000e+00    0.000000e+00  0.000000e+00
1.750000e+09   -5.270298e-01 -5.673819e-01    2.941782e-01 -1.833368e-01    0.000000e+00  0.000000e+00    0.000000e+00  0.000000e+00
1.760000e+09   -5.545601e-01 -5.534539e-01    2.764595e-01 -1.878172e-01    0.000000e+00  0.000000e+00    0.000000e+00  0.000000e+00
1.770000e+09   -5.809799e-01 -5.383123e-01    2.593393e-01 -1.911408e-01    0.000000e+00  0.000000e+00    0.000000e+00  0.000000e+00
1.780000e+09   -6.062407e-01 -5.220804e-01    2.428733e-01 -1.934163e-01    0.000000e+00  0.000000e+00    0.000000e+00  0.000000e+00
1.790000e+09   -6.303084e-01 -5.048810e-01    2.271033e-01 -1.947524e-01    0.000000e+00  0.000000e+00    0.000000e+00  0.000000e+00
1.800000e+09   -6.531621e-01 -4.868343e-01    2.120580e-01 -1.952559e-01    0.000000e+00  0.000000e+00    0.000000e+00  0.000000e+00
1.810000e+09   -6.747941e-01 -4.680566e-01    1.977533e-01 -1.950301e-01    0.000000e+00  0.000000e+00    0.000000e+00  0.000000e+00
1.820000e+09   -6.952080e-01 -4.486591e-01    1.841941e-01 -1.941739e-01    0.000000e+00  0.000000e+00    0.000000e+00  0.000000e+00
1.830000e+09   -7.144179e-01 -4.287465e-01    1.713750e-01 -1.927801e-01    0.000000e+00  0.000000e+00    0.000000e+00  0.000000e+00
1.840000e+09   -7.324470e-01 -4.084161e-01    1.592814e-01 -1.909350e-01    0.000000e+00  0.000000e+00    0.000000e+00  0.000000e+00
1.850000e+09   -7.493263e-01 -3.877572e-01    1.478915e-01 -1.887172e-01    0.000000e+00  0.000000e+00    0.000000e+00  0.000000e+00
1.860000e+09   -7.650930e-01 -3.668507e-01    1.371769e-01 -1.861977e-01    0.000000e+00  0.000000e+00    0.000000e+00  0.000000e+00
1.870000e+09   -7.797893e-01 -3.457687e-01    1.271047e-01 -1.834388e-01    0.000000e+00  0.000000e+00    0.000000e+00  0.000000e+00
1.880000e+09   -7.934610e-01 -3.245744e-01    1.176382e-01 -1.804949e-01    0.000000e+00  0.000000e+00    0.000000e+00  0.000000e+00
1.890000e+09   -8.061560e-01 -3.033222e-01    1.087388e-01 -1.774120e-01    0.000000e+00  0.000000e+00    0.000000e+00  0.000000e+00
1.900000e+09   -8.179234e-01 -2.820582e-01    1.003664e-01 -1.742283e-01    0.000000e+00  0.000000e+00    0.000000e+00  0.000000e+00
1.910000e+09   -8.288120e-01 -2.608206e-01    9.248157e-02 -1.709744e-01    0.000000e+00  0.000000e+00    0.000000e+00  0.000000e+00
1.920000e+09   -8.388696e-01 -2.396402e-01    8.504544e-02 -1.676740e-01    0.000000e+00  0.000000e+00    0.000000e+00  0.000000e+00
1.930000e+09   -8.481421e-01 -2.185409e-01    7.802125e-02 -1.643448e-01    0.000000e+00  0.000000e+00    0.000000e+00  0.000000e+00
1.940000e+09   -8.566726e-01 -1.975412e-01    7.137475e-02 -1.609988e-01    0.000000e+00  0.000000e+00    0.000000e+00  0.000000e+00
1.950000e+09   -8.645012e-01 -1.766541e-01    6.507478e-02 -1.576434e-01    0.000000e+00  0.000000e+00    0.000000e+00  0.000000e+00
1.960000e+09   -8.716642e-01 -1.558886e-01    5.909368e-02 -1.542822e-01    0.000000e+00  0.000000e+00    0.000000e+00  0.000000e+00
1.970000e+09   -8.781942e-01 -1.352506e-01    5.340746e-02 -1.509159e-01    0.000000e+00  0.000000e+00    0.000000e+00  0.000000e+00
1.980000e+09   -8.841200e-01 -1.147431e-01    4.799594e-02 -1.475431e-01    0.000000e+00  0.000000e+00    0.000000e+00  0.000000e+00
1.990000e+09   -8.894664e-01 -9.436794e-02    4.284268e-02 -1.441608e-01    0.000000e+00  0.000000e+00    0.000000e+00  0.000000e+00
2.000000e+09   -8.942544e-01 -7.412568e-02    3.793479e-02 -1.407658e-01    0.000000e+00  0.000000e+00    0.000000e+00  0.000000e+00
2.010000e+09   -8.985020e-01 -5.401683e-02    3.326269e-02 -1.373544e-01    0.000000e+00  0.000000e+00    0.000000e+00  0.000000e+00
2.020000e+09   -9.022236e-01 -3.404220e-02    2.881972e-02 -1.339241e-01    0.000000e+00  0.000000e+00    0.000000e+00  0.000000e+00
2.030000e+09   -9.054315e-01 -1.420344e-02    2.460173e-02 -1.304730e-01    0.000000e+00  0.000000e+00    0.000000e+00  0.000000e+00
2.040000e+09   -9.081355e-01  5.496623e-03    2.060659e-02 -1.270009e-01    0.000000e+00  0.000000e+00    0.000000e+00  0.000000e+00
2.050000e+09   -9.103441e-01  2.505367e-02    1.683364e-02 -1.235090e-01    0.000000e+00  0.000000e+00    0.000000e+00  0.000000e+00
2.060000e+09   -9.120644e-01  4.446180e-02    1.328325e-02 -1.200008e-01    0.000000e+00  0.000000e+00    0.000000e+00  0.000000e+00
2.070000e+09   -9.133033e-01  6.371341e-02    9.956197e-03 -1.164811e-01    0.000000e+00  0.000000e+00    0.000000e+00  0.000000e+00
2.080000e+09   -9.140672e-01  8.279931e-02    6.853267e-03 -1.129571e-01    0.000000e+00  0.000000e+00    0.000000e+00  0.000000e+00
2.090000e+09   -9.143634e-01  1.017088e-01    3.974743e-03 -1.094372e-01    0.000000e+00  0.000000e+00    0.000000e+00  0.000000e+00
2.100000e+09   -9.141996e-01  1.204300e-01    1.320029e-03 -1.059316e-01    0.000000e+00  0.000000e+00    0.000000e+00  0.000000e+00
2.110000e+09   -9.135847e-01  1.389498e-01   -1.112693e-03 -1.024516e-01    0.000000e+00  0.000000e+00    0.000000e+00  0.000000e+00
2.120000e+09   -9.125291e-01  1.572548e-01   -3.326726e-03 -9.900923e-02    0.000000e+00  0.000000e+00    0.000000e+00  0.000000e+00
2.130000e+09   -9.110446e-01  1.753310e-01   -5.327041e-03 -9.561721e-02    0.000000e+00  0.000000e+00    0.000000e+00  0.000000e+00
2.140000e+09   -9.091449e-01  1.931646e-01   -7.120388e-03 -9.228826e-02    0.000000e+00  0.000000e+00    0.000000e+00  0.000000e+00
2.150000e+09   -9.068451e-01  2.107423e-01   -8.715322e-03 -8.903483e-02    0.000000e+00  0.000000e+00    0.000000e+00  0.000000e+00
2.160000e+09   -9.041622e-01  2.280516e-01   -1.012215e-02 -8.586871e-02    0.000000e+00  0.000000e+00    0.000000e+00  0.000000e+00
2.170000e+09   -9.011145e-01  2.450813e-01   -1.135280e-02 -8.280068e-02    0.000000e+00  0.000000e+00    0.000000e+00  0.000000e+00
2.180000e+09   -8.977216e-01  2.618215e-01   -1.242065e-02 -7.984018e-02    0.000000e+00  0.000000e+00    0.000000e+00  0.000000e+00
2.190000e+09   -8.940042e-01  2.782642e-01   -1.334028e-02 -7.699504e-02    0.000000e+00  0.000000e+00    0.000000e+00  0.000000e+00
2.200000e+09   -8.899839e-01  2.944035e-01   -1.412714e-02 -7.427127e-02    0.000000e+00  0.000000e+00    0.000000e+00  0.000000e+00
2.210000e+09   -8.856825e-01  3.102353e-01   -1.479731e-02 -7.167289e-02    0.000000e+00  0.000000e+00    0.000000e+00  0.000000e+00
2.220000e+09   -8.811219e-01  3.257581e-01   -1.536708e-02 -6.920185e-02    0.000000e+00  0.000000e+00    0.000000e+00  0.000000e+00
2.230000e+09   -8.763240e-01  3.409723e-01   -1.585261e-02 -6.685799e-02    0.000000e+00  0.000000e+00    0.000000e+00  0.000000e+00
2.240000e+09   -8.713096e-01  3.558806e-01   -1.626963e-02 -6.463908e-02    0.000000e+00  0.000000e+00    0.000000e+00  0.000000e+00
2.250000e+09   -8.660989e-01  3.704878e-01   -1.663303e-02 -6.254097e-02    0.000000e+00  0.000000e+00    0.000000e+00  0.000000e+00