! Generated by a Qucs-RFlayout generated OpenEMS script
#   Hz   S  RI   R   50
! 
1.000000e+08   -1.026161e-01  3.397379e-04    7.639774e-01 -4.872946e-01    0.000000e+00  0.000000e+00    0.000000e+00  0.000000e+00
1.061327e+08   -1.039368e-01  3.362774e-04    7.465661e-01 -5.136146e-01    0.000000e+00  0.000000e+00    0.000000e+00  0.000000e+00
1.122653e+08   -1.054069e-01  4.167969e-04    7.282465e-01 -5.393283e-01    0.000000e+00  0.000000e+00    0.000000e+00  0.000000e+00
1.183980e+08   -1.070224e-01  6.016076e-04    7.090362e-01 -5.644053e-01    0.000000e+00  0.000000e+00    0.000000e+00  0.000000e+00
1.245307e+08   -1.087763e-01  9.107146e-04    6.889538e-01 -5.888150e-01    0.000000e+00  0.000000e+00    0.000000e+00  0.000000e+00
1.306633e+08   -1.106587e-01  1.363380e-03    6.680188e-01 -6.125266e-01    0.000000e+00  0.000000e+00    0.000000e+00  0.000000e+00
1.367960e+08   -1.126570e-01  1.977702e-03    6.462517e-01 -6.355089e-01    0.000000e+00  0.000000e+00    0.000000e+00  0.000000e+00
1.429287e+08   -1.147561e-01  2.770217e-03    6.236744e-01 -6.577306e-01    0.000000e+00  0.000000e+00    0.000000e+00  0.000000e+00
1.490613e+08   -1.169388e-01  3.755541e-03    6.003104e-01 -6.791604e-01    0.000000e+00  0.000000e+00    0.000000e+00  0.000000e+00
1.551940e+08   -1.191856e-01  4.946038e-03    5.761846e-01 -6.997669e-01    0.000000e+00  0.000000e+00    0.000000e+00  0.000000e+00
1.613267e+08   -1.214757e-01  6.351549e-03    5.513242e-01 -7.195189e-01    0.000000e+00  0.000000e+00    0.000000e+00  0.000000e+00
1.674593e+08   -1.237867e-01  7.979161e-03    5.257581e-01 -7.383856e-01    0.000000e+00  0.000000e+00    0.000000e+00  0.000000e+00
1.735920e+08   -1.260956e-01  9.833042e-03    4.995175e-01 -7.563370e-01    0.000000e+00  0.000000e+00    0.000000e+00  0.000000e+00
1.797247e+08   -1.283789e-01  1.191434e-02    4.726357e-01 -7.733439e-01    0.000000e+00  0.000000e+00    0.000000e+00  0.000000e+00
1.858573e+08   -1.306132e-01  1.422113e-02    4.451482e-01 -7.893784e-01    0.000000e+00  0.000000e+00    0.000000e+00  0.000000e+00
1.919900e+08   -1.327756e-01  1.674847e-02    4.170927e-01 -8.044140e-01    0.000000e+00  0.000000e+00    0.000000e+00  0.000000e+00
1.981227e+08   -1.348442e-01  1.948851e-02    3.885089e-01 -8.184265e-01    0.000000e+00  0.000000e+00    0.000000e+00  0.000000e+00
2.042553e+08   -1.367984e-01  2.243063e-02    3.594386e-01 -8.313934e-01    0.000000e+00  0.000000e+00    0.000000e+00  0.000000e+00
2.103880e+08   -1.386193e-01  2.556176e-02    3.299250e-01 -8.432950e-01    0.000000e+00  0.000000e+00    0.000000e+00  0.000000e+00
2.165207e+08   -1.402906e-01  2.886661e-02    3.000128e-01 -8.541142e-01    0.000000e+00  0.000000e+00    0.000000e+00  0.000000e+00
2.226533e+08   -1.417980e-01  3.232814e-02    2.697478e-01 -8.638368e-01    0.000000e+00  0.000000e+00    0.000000e+00  0.000000e+00
2.287860e+08   -1.431302e-01  3.592791e-02    2.391766e-01 -8.724517e-01    0.000000e+00  0.000000e+00    0.000000e+00  0.000000e+00
2.349186e+08   -1.442787e-01  3.964659e-02    2.083459e-01 -8.799510e-01    0.000000e+00  0.000000e+00    0.000000e+00  0.000000e+00
2.410513e+08   -1.452380e-01  4.346444e-02    1.773025e-01 -8.863298e-01    0.000000e+00  0.000000e+00    0.000000e+00  0.000000e+00
2.471840e+08   -1.460054e-01  4.736181e-02    1.460925e-01 -8.915864e-01    0.000000e+00  0.000000e+00    0.000000e+00  0.000000e+00
2.533166e+08   -1.465814e-01  5.131963e-02    1.147613e-01 -8.957221e-01    0.000000e+00  0.000000e+00    0.000000e+00  0.000000e+00
2.594493e+08   -1.469691e-01  5.531992e-02    8.335292e-02 -8.987408e-01    0.000000e+00  0.000000e+00    0.000000e+00  0.000000e+00
2.655820e+08   -1.471737e-01  5.934617e-02    5.190989e-02 -9.006489e-01    0.000000e+00  0.000000e+00    0.000000e+00  0.000000e+00
2.717146e+08   -1.472031e-01  6.338377e-02    2.047280e-02 -9.014549e-01    0.000000e+00  0.000000e+00    0.000000e+00  0.000000e+00
2.778473e+08   -1.470664e-01  6.742032e-02   -1.091975e-02 -9.011692e-01    0.000000e+00  0.000000e+00    0.000000e+00  0.000000e+00
2.839800e+08   -1.467743e-01  7.144581e-02   -4.223130e-02 -8.998031e-01    0.000000e+00  0.000000e+00    0.000000e+00  0.000000e+00
2.901126e+08   -1.463381e-01  7.545287e-02   -7.342759e-02 -8.973693e-01    0.000000e+00  0.000000e+00    0.000000e+00  0.000000e+00
2.962453e+08   -1.457694e-01  7.943671e-02   -1.044765e-01 -8.938808e-01    0.000000e+00  0.000000e+00    0.000000e+00  0.000000e+00
3.023780e+08   -1.450796e-01  8.339520e-02   -1.353479e-01 -8.893506e-01    0.000000e+00  0.000000e+00    0.000000e+00  0.000000e+00
3.085106e+08   -1.442795e-01  8.732867e-02   -1.660134e-01 -8.837916e-01    0.000000e+00  0.000000e+00    0.000000e+00  0.000000e+00
3.146433e+08   -1.433786e-01  9.123972e-02   -1.964463e-01 -8.772161e-01    0.000000e+00  0.000000e+00    0.000000e+00  0.000000e+00
3.207760e+08   -1.423849e-01  9.513298e-02   -2.266210e-01 -8.696356e-01    0.000000e+00  0.000000e+00    0.000000e+00  0.000000e+00
3.269086e+08   -1.413047e-01  9.901468e-02   -2.565127e-01 -8.610606e-01    0.000000e+00  0.000000e+00    0.000000e+00  0.000000e+00
3.330413e+08   -1.401419e-01  1.028923e-01   -2.860972e-01 -8.515005e-01    0.000000e+00  0.000000e+00    0.000000e+00  0.000000e+00
3.391740e+08   -1.388981e-01  1.067743e-01   -3.153503e-01 -8.409639e-01    0.000000e+00  0.000000e+00    0.000000e+00  0.000000e+00
3.453066e+08   -1.375726e-01  1.106692e-01   -3.442474e-01 -8.294581e-01    0.000000e+00  0.000000e+00    0.000000e+00  0.000000e+00
3.514393e+08   -1.361620e-01  1.145855e-01   -3.727633e-01 -8.169898e-01    0.000000e+00  0.000000e+00    0.000000e+00  0.000000e+00
3.575720e+08   -1.346607e-01  1.185313e-01   -4.008717e-01 -8.035648e-01    0.000000e+00  0.000000e+00    0.000000e+00  0.000000e+00
3.637046e+08   -1.330607e-01  1.225134e-01   -4.285451e-01 -7.891888e-01    0.000000e+00  0.000000e+00    0.000000e+00  0.000000e+00
3.698373e+08   -1.313520e-01  1.265373e-01   -4.557545e-01 -7.738675e-01    0.000000e+00  0.000000e+00    0.000000e+00  0.000000e+00
3.759700e+08   -1.295225e-01  1.306067e-01   -4.824690e-01 -7.576069e-01    0.000000e+00  0.000000e+00    0.000000e+00  0.000000e+00
3.821026e+08   -1.275590e-01  1.347231e-01   -5.086561e-01 -7.404138e-01    0.000000e+00  0.000000e+00    0.000000e+00  0.000000e+00
3.882353e+08   -1.254470e-01  1.388855e-01   -5.342817e-01 -7.222964e-01    0.000000e+00  0.000000e+00    0.000000e+00  0.000000e+00
3.943680e+08   -1.231714e-01  1.430904e-01   -5.593096e-01 -7.032643e-01    0.000000e+00  0.000000e+00    0.000000e+00  0.000000e+00
4.005006e+08   -1.207170e-01  1.473317e-01   -5.837026e-01 -6.833293e-01    0.000000e+00  0.000000e+00    0.000000e+00  0.000000e+00
4.066333e+08   -1.180685e-01  1.516003e-01   -6.074218e-01 -6.625058e-01    0.000000e+00  0.000000e+00    0.000000e+00  0.000000e+00
4.127660e+08   -1.152117e-01  1.558846e-01   -6.304276e-01 -6.408107e-01    0.000000e+00  0.000000e+00    0.000000e+00  0.000000e+00
4.188986e+08   -1.121333e-01  1.601703e-01   -6.526797e-01 -6.182641e-01    0.000000e+00  0.000000e+00    0.000000e+00  0.000000e+00
4.250313e+08   -1.088217e-01  1.644406e-01   -6.741378e-01 -5.948896e-01    0.000000e+00  0.000000e+00    0.000000e+00  0.000000e+00
4.311640e+08   -1.052673e-01  1.686767e-01   -6.947618e-01 -5.707140e-01    0.000000e+00  0.000000e+00    0.000000e+00  0.000000e+00
4.372966e+08   -1.014628e-01  1.728577e-01   -7.145124e-01 -5.457676e-01    0.000000e+00  0.000000e+00    0.000000e+00  0.000000e+00
4.434293e+08   -9.740365e-02  1.769615e-01   -7.333518e-01 -5.200844e-01    0.000000e+00  0.000000e+00    0.000000e+00  0.000000e+00
4.495620e+08   -9.308807e-02  1.809647e-01   -7.512438e-01 -4.937015e-01    0.000000e+00  0.000000e+00    0.000000e+00  0.000000e+00
4.556946e+08   -8.851737e-02  1.848435e-01   -7.681548e-01 -4.666593e-01    0.000000e+00  0.000000e+00    0.000000e+00  0.000000e+00
4.618273e+08   -8.369598e-02  1.885738e-01   -7.840539e-01 -4.390011e-01    0.000000e+00  0.000000e+00    0.000000e+00  0.000000e+00
4.679599e+08   -7.863146e-02  1.921320e-01   -7.989133e-01 -4.107727e-01    0.000000e+00  0.000000e+00    0.000000e+00  0.000000e+00
4.740926e+08   -7.333441e-02  1.954954e-01   -8.127088e-01 -3.820218e-01    0.000000e+00  0.000000e+00    0.000000e+00  0.000000e+00
4.802253e+08   -6.781832e-02  1.986425e-01   -8.254199e-01 -3.527979e-01    0.000000e+00  0.000000e+00    0.000000e+00  0.000000e+00
4.863579e+08   -6.209935e-02  2.015535e-01   -8.370303e-01 -3.231514e-01    0.000000e+00  0.000000e+00    0.000000e+00  0.000000e+00
4.924906e+08   -5.619598e-02  2.042109e-01   -8.475274e-01 -2.931333e-01    0.000000e+00  0.000000e+00    0.000000e+00  0.000000e+00
4.986233e+08   -5.012868e-02  2.065996e-01   -8.569028e-01 -2.627945e-01    0.000000e+00  0.000000e+00    0.000000e+00  0.000000e+00
5.047559e+08   -4.391949e-02  2.087072e-01   -8.651520e-01 -2.321852e-01    0.000000e+00  0.000000e+00    0.000000e+00  0.000000e+00
5.108886e+08   -3.759154e-02  2.105243e-01   -8.722741e-01 -2.013546e-01    0.000000e+00  0.000000e+00    0.000000e+00  0.000000e+00
5.170213e+08   -3.116861e-02  2.120444e-01   -8.782717e-01 -1.703502e-01    0.000000e+00  0.000000e+00    0.000000e+00  0.000000e+00
5.231539e+08   -2.467462e-02  2.132642e-01   -8.831502e-01 -1.392176e-01    0.000000e+00  0.000000e+00    0.000000e+00  0.000000e+00
5.292866e+08   -1.813316e-02  2.141831e-01   -8.869178e-01 -1.080001e-01    0.000000e+00  0.000000e+00    0.000000e+00  0.000000e+00
5.354193e+08   -1.156704e-02  2.148038e-01   -8.895847e-01 -7.673828e-02    0.000000e+00  0.000000e+00    0.000000e+00  0.000000e+00
5.415519e+08   -4.997848e-03  2.151312e-01   -8.911626e-01 -4.547016e-02    0.000000e+00  0.000000e+00    0.000000e+00  0.000000e+00
5.476846e+08    1.554382e-03  2.151727e-01   -8.916643e-01 -1.423095e-02    0.000000e+00  0.000000e+00    0.000000e+00  0.000000e+00
5.538173e+08    8.071526e-03  2.149379e-01   -8.911032e-01  1.694684e-02    0.000000e+00  0.000000e+00    0.000000e+00  0.000000e+00
5.599499e+08    1.453760e-02  2.144376e-01   -8.894927e-01  4.803326e-02    0.000000e+00  0.000000e+00    0.000000e+00  0.000000e+00
5.660826e+08    2.093894e-02  2.136843e-01   -8.868457e-01  7.900071e-02    0.000000e+00  0.000000e+00    0.000000e+00  0.000000e+00
5.722153e+08    2.726430e-02  2.126909e-01   -8.831745e-01  1.098236e-01    0.000000e+00  0.000000e+00    0.000000e+00  0.000000e+00
5.783479e+08    3.350487e-02  2.114709e-01   -8.784901e-01  1.404781e-01    0.000000e+00  0.000000e+00    0.000000e+00  0.000000e+00
5.844806e+08    3.965425e-02  2.100375e-01   -8.728023e-01  1.709414e-01    0.000000e+00  0.000000e+00    0.000000e+00  0.000000e+00
5.906133e+08    4.570831e-02  2.084036e-01   -8.661191e-01  2.011918e-01    0.000000e+00  0.000000e+00    0.000000e+00  0.000000e+00
5.967459e+08    5.166497e-02  2.065813e-01   -8.584472e-01  2.312076e-01    0.000000e+00  0.000000e+00    0.000000e+00  0.000000e+00
6.028786e+08    5.752401e-02  2.045811e-01   -8.497915e-01  2.609672e-01    0.000000e+00  0.000000e+00    0.000000e+00  0.000000e+00
6.090113e+08    6.328673e-02  2.024125e-01   -8.401557e-01  2.904482e-01    0.000000e+00  0.000000e+00    0.000000e+00  0.000000e+00
6.151439e+08    6.895562e-02  2.000830e-01   -8.295420e-01  3.196273e-01    0.000000e+00  0.000000e+00    0.000000e+00  0.000000e+00
6.212766e+08    7.453400e-02  1.975985e-01   -8.179516e-01  3.484797e-01    0.000000e+00  0.000000e+00    0.000000e+00  0.000000e+00
6.274093e+08    8.002562e-02  1.949627e-01   -8.053853e-01  3.769790e-01    0.000000e+00  0.000000e+00    0.000000e+00  0.000000e+00
6.335419e+08    8.543428e-02  1.921776e-01   -7.918435e-01  4.050965e-01    0.000000e+00  0.000000e+00    0.000000e+00  0.000000e+00
6.396746e+08    9.076342e-02  1.892430e-01   -7.773268e-01  4.328017e-01    0.000000e+00  0.000000e+00    0.000000e+00  0.000000e+00
6.458073e+08    9.601578e-02  1.861572e-01   -7.618365e-01  4.600615e-01    0.000000e+00  0.000000e+00    0.000000e+00  0.000000e+00
6.519399e+08    1.011930e-01  1.829167e-01   -7.453750e-01  4.868407e-01    0.000000e+00  0.000000e+00    0.000000e+00  0.000000e+00
6.580726e+08    1.062955e-01  1.795168e-01   -7.279464e-01  5.131020e-01    0.000000e+00  0.000000e+00    0.000000e+00  0.000000e+00
6.642053e+08    1.113218e-01  1.759515e-01   -7.095571e-01  5.388059e-01    0.000000e+00  0.000000e+00    0.000000e+00  0.000000e+00
6.703379e+08    1.162688e-01  1.722141e-01   -6.902156e-01  5.639113e-01    0.000000e+00  0.000000e+00    0.000000e+00  0.000000e+00
6.764706e+08    1.211314e-01  1.682976e-01   -6.699338e-01  5.883755e-01    0.000000e+00  0.000000e+00    0.000000e+00  0.000000e+00
6.826033e+08    1.259022e-01  1.641950e-01   -6.487265e-01  6.121548e-01    0.000000e+00  0.000000e+00    0.000000e+00  0.000000e+00
6.887359e+08    1.305720e-01  1.598994e-01   -6.266122e-01  6.352051e-01    0.000000e+00  0.000000e+00    0.000000e+00  0.000000e+00
6.948686e+08    1.351295e-01  1.554049e-01   -6.036131e-01  6.574821e-01    0.000000e+00  0.000000e+00    0.000000e+00  0.000000e+00
7.010013e+08    1.395612e-01  1.507067e-01   -5.797551e-01  6.789419e-01    0.000000e+00  0.000000e+00    0.000000e+00  0.000000e+00
7.071339e+08    1.438521e-01  1.458013e-01   -5.550679e-01  6.995415e-01    0.000000e+00  0.000000e+00    0.000000e+00  0.000000e+00
7.132666e+08    1.479857e-01  1.406873e-01   -5.295848e-01  7.192397e-01    0.000000e+00  0.000000e+00    0.000000e+00  0.000000e+00
7.193992e+08    1.519442e-01  1.353652e-01   -5.033428e-01  7.379970e-01    0.000000e+00  0.000000e+00    0.000000e+00  0.000000e+00
7.255319e+08    1.557088e-01  1.298378e-01   -4.763818e-01  7.557765e-01    0.000000e+00  0.000000e+00    0.000000e+00  0.000000e+00
7.316646e+08    1.592603e-01  1.241105e-01   -4.487451e-01  7.725442e-01    0.000000e+00  0.000000e+00    0.000000e+00  0.000000e+00
7.377972e+08    1.625795e-01  1.181911e-01   -4.204779e-01  7.882693e-01    0.000000e+00  0.000000e+00    0.000000e+00  0.000000e+00
7.439299e+08    1.656471e-01  1.120903e-01   -3.916280e-01  8.029247e-01    0.000000e+00  0.000000e+00    0.000000e+00  0.000000e+00
7.500626e+08    1.684449e-01  1.058212e-01   -3.622443e-01  8.164868e-01    0.000000e+00  0.000000e+00    0.000000e+00  0.000000e+00
7.561952e+08    1.709554e-01  9.939928e-02   -3.323769e-01  8.289360e-01    0.000000e+00  0.000000e+00    0.000000e+00  0.000000e+00
7.623279e+08    1.731630e-01  9.284266e-02   -3.020763e-01  8.402565e-01    0.000000e+00  0.000000e+00    0.000000e+00  0.000000e+00
7.684606e+08    1.750535e-01  8.617138e-02   -2.713932e-01  8.504364e-01    0.000000e+00  0.000000e+00    0.000000e+00  0.000000e+00
7.745932e+08    1.766151e-01  7.940737e-02   -2.403775e-01  8.594674e-01    0.000000e+00  0.000000e+00    0.000000e+00  0.000000e+00
7.807259e+08    1.778381e-01  7.257410e-02   -2.090783e-01  8.673446e-01    0.000000e+00  0.000000e+00    0.000000e+00  0.000000e+00
7.868586e+08    1.787157e-01  6.569619e-02   -1.775431e-01  8.740663e-01    0.000000e+00  0.000000e+00    0.000000e+00  0.000000e+00
7.929912e+08    1.792435e-01  5.879909e-02   -1.458181e-01  8.796334e-01    0.000000e+00  0.000000e+00    0.000000e+00  0.000000e+00
7.991239e+08    1.794202e-01  5.190864e-02   -1.139470e-01  8.840493e-01    0.000000e+00  0.000000e+00    0.000000e+00  0.000000e+00
8.052566e+08    1.792470e-01  4.505066e-02   -8.197176e-02  8.873192e-01    0.000000e+00  0.000000e+00    0.000000e+00  0.000000e+00
8.113892e+08    1.787281e-01  3.825061e-02   -4.993194e-02  8.894499e-01    0.000000e+00  0.000000e+00    0.000000e+00  0.000000e+00
8.175219e+08    1.778703e-01  3.153318e-02   -1.786483e-02  8.904491e-01    0.000000e+00  0.000000e+00    0.000000e+00  0.000000e+00
8.236546e+08    1.766828e-01  2.492193e-02    1.419446e-02  8.903251e-01    0.000000e+00  0.000000e+00    0.000000e+00  0.000000e+00
8.297872e+08    1.751773e-01  1.843899e-02    4.621287e-02  8.890862e-01    0.000000e+00  0.000000e+00    0.000000e+00  0.000000e+00
8.359199e+08    1.733672e-01  1.210480e-02    7.815919e-02  8.867406e-01    0.000000e+00  0.000000e+00    0.000000e+00  0.000000e+00
8.420526e+08    1.712680e-01  5.937841e-03    1.100037e-01  8.832959e-01    0.000000e+00  0.000000e+00    0.000000e+00  0.000000e+00
8.481852e+08    1.688963e-01 -4.551865e-05    1.417180e-01  8.787589e-01    0.000000e+00  0.000000e+00    0.000000e+00  0.000000e+00
8.543179e+08    1.662700e-01 -5.831138e-03    1.732745e-01  8.731354e-01    0.000000e+00  0.000000e+00    0.000000e+00  0.000000e+00
8.604506e+08    1.634074e-01 -1.140718e-02    2.046459e-01  8.664299e-01    0.000000e+00  0.000000e+00    0.000000e+00  0.000000e+00
8.665832e+08    1.603276e-01 -1.676410e-02    2.358052e-01  8.586461e-01    0.000000e+00  0.000000e+00    0.000000e+00  0.000000e+00
8.727159e+08    1.570493e-01 -2.189464e-02    2.667247e-01  8.497862e-01    0.000000e+00  0.000000e+00    0.000000e+00  0.000000e+00
8.788486e+08    1.535912e-01 -2.679366e-02    2.973763e-01  8.398515e-01    0.000000e+00  0.000000e+00    0.000000e+00  0.000000e+00
8.849812e+08    1.499713e-01 -3.145805e-02    3.277305e-01  8.288425e-01    0.000000e+00  0.000000e+00    0.000000e+00  0.000000e+00
8.911139e+08    1.462067e-01 -3.588650e-02    3.577563e-01  8.167593e-01    0.000000e+00  0.000000e+00    0.000000e+00  0.000000e+00
8.972466e+08    1.423134e-01 -4.007929e-02    3.874210e-01  8.036016e-01    0.000000e+00  0.000000e+00    0.000000e+00  0.000000e+00
9.033792e+08    1.383064e-01 -4.403801e-02    4.166901e-01  7.893691e-01    0.000000e+00  0.000000e+00    0.000000e+00  0.000000e+00
9.095119e+08    1.341989e-01 -4.776528e-02    4.455268e-01  7.740623e-01    0.000000e+00  0.000000e+00    0.000000e+00  0.000000e+00
9.156446e+08    1.300031e-01 -5.126446e-02    4.738921e-01  7.576827e-01    0.000000e+00  0.000000e+00    0.000000e+00  0.000000e+00
9.217772e+08    1.257292e-01 -5.453937e-02    5.017448e-01  7.402328e-01    0.000000e+00  0.000000e+00    0.000000e+00  0.000000e+00
9.279099e+08    1.213864e-01 -5.759394e-02    5.290417e-01  7.217174e-01    0.000000e+00  0.000000e+00    0.000000e+00  0.000000e+00
9.340426e+08    1.169823e-01 -6.043199e-02    5.557376e-01  7.021435e-01    0.000000e+00  0.000000e+00    0.000000e+00  0.000000e+00
9.401752e+08    1.125232e-01 -6.305692e-02    5.817854e-01  6.815206e-01    0.000000e+00  0.000000e+00    0.000000e+00  0.000000e+00
9.463079e+08    1.080145e-01 -6.547149e-02    6.071369e-01  6.598615e-01    0.000000e+00  0.000000e+00    0.000000e+00  0.000000e+00
9.524406e+08    1.034606e-01 -6.767765e-02    6.317427e-01  6.371822e-01    0.000000e+00  0.000000e+00    0.000000e+00  0.000000e+00
9.585732e+08    9.886542e-02 -6.967637e-02    6.555525e-01  6.135024e-01    0.000000e+00  0.000000e+00    0.000000e+00  0.000000e+00
9.647059e+08    9.423236e-02 -7.146752e-02    6.785161e-01  5.888457e-01    0.000000e+00  0.000000e+00    0.000000e+00  0.000000e+00
9.708385e+08    8.956485e-02 -7.304986e-02    7.005835e-01  5.632395e-01    0.000000e+00  0.000000e+00    0.000000e+00  0.000000e+00
9.769712e+08    8.486652e-02 -7.442098e-02    7.217055e-01  5.367152e-01    0.000000e+00  0.000000e+00    0.000000e+00  0.000000e+00
9.831039e+08    8.014149e-02 -7.557743e-02    7.418339e-01  5.093081e-01    0.000000e+00  0.000000e+00    0.000000e+00  0.000000e+00
9.892365e+08    7.539465e-02 -7.651474e-02    7.609225e-01  4.810574e-01    0.000000e+00  0.000000e+00    0.000000e+00  0.000000e+00
9.953692e+08    7.063192e-02 -7.722766e-02    7.789272e-01  4.520059e-01    0.000000e+00  0.000000e+00    0.000000e+00  0.000000e+00
1.001502e+09    6.586045e-02 -7.771029e-02    7.958067e-01  4.221997e-01    0.000000e+00  0.000000e+00    0.000000e+00  0.000000e+00
1.007635e+09    6.108883e-02 -7.795638e-02    8.115223e-01  3.916879e-01    0.000000e+00  0.000000e+00    0.000000e+00  0.000000e+00
1.013767e+09    5.632720e-02 -7.795956e-02    8.260390e-01  3.605224e-01    0.000000e+00  0.000000e+00    0.000000e+00  0.000000e+00
1.019900e+09    5.158737e-02 -7.771365e-02    8.393251e-01  3.287574e-01    0.000000e+00  0.000000e+00    0.000000e+00  0.000000e+00
1.026033e+09    4.688282e-02 -7.721300e-02    8.513528e-01  2.964487e-01    0.000000e+00  0.000000e+00    0.000000e+00  0.000000e+00
1.032165e+09    4.222874e-02 -7.645280e-02    8.620980e-01  2.636536e-01    0.000000e+00  0.000000e+00    0.000000e+00  0.000000e+00
1.038298e+09    3.764190e-02 -7.542938e-02    8.715408e-01  2.304303e-01    0.000000e+00  0.000000e+00    0.000000e+00  0.000000e+00
1.044431e+09    3.314054e-02 -7.414057e-02    8.796650e-01  1.968376e-01    0.000000e+00  0.000000e+00    0.000000e+00  0.000000e+00
1.050563e+09    2.874420e-02 -7.258594e-02    8.864580e-01  1.629342e-01    0.000000e+00  0.000000e+00    0.000000e+00  0.000000e+00
1.056696e+09    2.447347e-02 -7.076710e-02    8.919112e-01  1.287783e-01    0.000000e+00  0.000000e+00    0.000000e+00  0.000000e+00
1.062829e+09    2.034972e-02 -6.868793e-02    8.960192e-01  9.442769e-02    0.000000e+00  0.000000e+00    0.000000e+00  0.000000e+00
1.068961e+09    1.639479e-02 -6.635473e-02    8.987797e-01  5.993889e-02    0.000000e+00  0.000000e+00    0.000000e+00  0.000000e+00
1.075094e+09    1.263064e-02 -6.377637e-02    9.001936e-01  2.536720e-02    0.000000e+00  0.000000e+00    0.000000e+00  0.000000e+00
1.081227e+09    9.078963e-03 -6.096439e-02    9.002639e-01 -9.233572e-03    0.000000e+00  0.000000e+00    0.000000e+00  0.000000e+00
1.087359e+09    5.760831e-03 -5.793299e-02    8.989960e-01 -4.381126e-02    0.000000e+00  0.000000e+00    0.000000e+00  0.000000e+00
1.093492e+09    2.696283e-03 -5.469901e-02    8.963973e-01 -7.831538e-02    0.000000e+00  0.000000e+00    0.000000e+00  0.000000e+00
1.099625e+09   -9.604851e-05 -5.128180e-02    8.924765e-01 -1.126972e-01    0.000000e+00  0.000000e+00    0.000000e+00  0.000000e+00
1.105757e+09   -2.599311e-03 -4.770314e-02    8.872435e-01 -1.469096e-01    0.000000e+00  0.000000e+00    0.000000e+00  0.000000e+00
1.111890e+09   -4.798777e-03 -4.398691e-02    8.807091e-01 -1.809070e-01    0.000000e+00  0.000000e+00    0.000000e+00  0.000000e+00
1.118023e+09   -6.682162e-03 -4.015894e-02    8.728847e-01 -2.146453e-01    0.000000e+00  0.000000e+00    0.000000e+00  0.000000e+00
1.124155e+09   -8.239893e-03 -3.624662e-02    8.637822e-01 -2.480816e-01    0.000000e+00  0.000000e+00    0.000000e+00  0.000000e+00
1.130288e+09   -9.465344e-03 -3.227856e-02    8.534135e-01 -2.811739e-01    0.000000e+00  0.000000e+00    0.000000e+00  0.000000e+00
1.136421e+09   -1.035500e-02 -2.828421e-02    8.417909e-01 -3.138808e-01    0.000000e+00  0.000000e+00    0.000000e+00  0.000000e+00
1.142553e+09   -1.090858e-02 -2.429346e-02    8.289263e-01 -3.461617e-01    0.000000e+00  0.000000e+00    0.000000e+00  0.000000e+00
1.148686e+09   -1.112910e-02 -2.033619e-02    8.148320e-01 -3.779757e-01    0.000000e+00  0.000000e+00    0.000000e+00  0.000000e+00
1.154819e+09   -1.102282e-02 -1.644184e-02    7.995201e-01 -4.092821e-01    0.000000e+00  0.000000e+00    0.000000e+00  0.000000e+00
1.160951e+09   -1.059923e-02 -1.263900e-02    7.830031e-01 -4.400398e-01    0.000000e+00  0.000000e+00    0.000000e+00  0.000000e+00
1.167084e+09   -9.870885e-03 -8.954967e-03    7.652935e-01 -4.702069e-01    0.000000e+00  0.000000e+00    0.000000e+00  0.000000e+00
1.173217e+09   -8.853192e-03 -5.415379e-03    7.464048e-01 -4.997407e-01    0.000000e+00  0.000000e+00    0.000000e+00  0.000000e+00
1.179349e+09   -7.564185e-03 -2.043849e-03    7.263509e-01 -5.285978e-01    0.000000e+00  0.000000e+00    0.000000e+00  0.000000e+00
1.185482e+09   -6.024214e-03  1.138349e-03    7.051469e-01 -5.567334e-01    0.000000e+00  0.000000e+00    0.000000e+00  0.000000e+00
1.191615e+09   -4.255599e-03  4.112542e-03    6.828093e-01 -5.841016e-01    0.000000e+00  0.000000e+00    0.000000e+00  0.000000e+00
1.197747e+09   -2.282258e-03  6.862869e-03    6.593564e-01 -6.106554e-01    0.000000e+00  0.000000e+00    0.000000e+00  0.000000e+00
1.203880e+09   -1.293017e-04  9.376431e-03    6.348084e-01 -6.363467e-01    0.000000e+00  0.000000e+00    0.000000e+00  0.000000e+00
1.210013e+09    2.177379e-03  1.164337e-02    6.091881e-01 -6.611265e-01    0.000000e+00  0.000000e+00    0.000000e+00  0.000000e+00
1.216145e+09    4.611534e-03  1.365691e-02    5.825207e-01 -6.849449e-01    0.000000e+00  0.000000e+00    0.000000e+00  0.000000e+00
1.222278e+09    7.146966e-03  1.541329e-02    5.548345e-01 -7.077513e-01    0.000000e+00  0.000000e+00    0.000000e+00  0.000000e+00
1.228411e+09    9.757925e-03  1.691166e-02    5.261613e-01 -7.294950e-01    0.000000e+00  0.000000e+00    0.000000e+00  0.000000e+00
1.234543e+09    1.241948e-02  1.815395e-02    4.965359e-01 -7.501254e-01    0.000000e+00  0.000000e+00    0.000000e+00  0.000000e+00
1.240676e+09    1.510784e-02  1.914463e-02    4.659972e-01 -7.695923e-01    0.000000e+00  0.000000e+00    0.000000e+00  0.000000e+00
1.246809e+09    1.780067e-02  1.989044e-02    4.345875e-01 -7.878461e-01    0.000000e+00  0.000000e+00    0.000000e+00  0.000000e+00
1.252941e+09    2.047729e-02  2.040012e-02    4.023529e-01 -8.048388e-01    0.000000e+00  0.000000e+00    0.000000e+00  0.000000e+00
1.259074e+09    2.311888e-02  2.068408e-02    3.693435e-01 -8.205240e-01    0.000000e+00  0.000000e+00    0.000000e+00  0.000000e+00
1.265207e+09    2.570860e-02  2.075403e-02    3.356130e-01 -8.348572e-01    0.000000e+00  0.000000e+00    0.000000e+00  0.000000e+00
1.271339e+09    2.823164e-02  2.062268e-02    3.012186e-01 -8.477968e-01    0.000000e+00  0.000000e+00    0.000000e+00  0.000000e+00
1.277472e+09    3.067524e-02  2.030334e-02    2.662207e-01 -8.593040e-01    0.000000e+00  0.000000e+00    0.000000e+00  0.000000e+00
1.283605e+09    3.302859e-02  1.980966e-02    2.306832e-01 -8.693435e-01    0.000000e+00  0.000000e+00    0.000000e+00  0.000000e+00
1.289737e+09    3.528277e-02  1.915524e-02    1.946722e-01 -8.778835e-01    0.000000e+00  0.000000e+00    0.000000e+00  0.000000e+00
1.295870e+09    3.743053e-02  1.835343e-02    1.582567e-01 -8.848963e-01    0.000000e+00  0.000000e+00    0.000000e+00  0.000000e+00
1.302003e+09    3.946612e-02  1.741707e-02    1.215073e-01 -8.903586e-01    0.000000e+00  0.000000e+00    0.000000e+00  0.000000e+00
1.308135e+09    4.138500e-02  1.635833e-02    8.449638e-02 -8.942512e-01    0.000000e+00  0.000000e+00    0.000000e+00  0.000000e+00
1.314268e+09    4.318365e-02  1.518854e-02    4.729720e-02 -8.965597e-01    0.000000e+00  0.000000e+00    0.000000e+00  0.000000e+00
1.320401e+09    4.485918e-02  1.391818e-02    9.983711e-03 -8.972742e-01    0.000000e+00  0.000000e+00    0.000000e+00  0.000000e+00
1.326533e+09    4.640913e-02  1.255687e-02   -2.737001e-02 -8.963894e-01    0.000000e+00  0.000000e+00    0.000000e+00  0.000000e+00
1.332666e+09    4.783116e-02  1.111338e-02   -6.469026e-02 -8.939042e-01    0.000000e+00  0.000000e+00    0.000000e+00  0.000000e+00
1.338798e+09    4.912277e-02  9.595819e-03   -1.019041e-01 -8.898223e-01    0.000000e+00  0.000000e+00    0.000000e+00  0.000000e+00
1.344931e+09    5.028108e-02  8.011742e-03   -1.389397e-01 -8.841509e-01    0.000000e+00  0.000000e+00    0.000000e+00  0.000000e+00
1.351064e+09    5.130264e-02  6.368423e-03   -1.757270e-01 -8.769016e-01    0.000000e+00  0.000000e+00    0.000000e+00  0.000000e+00
1.357196e+09    5.218330e-02  4.673103e-03   -2.121975e-01 -8.680889e-01    0.000000e+00  0.000000e+00    0.000000e+00  0.000000e+00
1.363329e+09    5.291809e-02  2.933298e-03   -2.482850e-01 -8.577309e-01    0.000000e+00  0.000000e+00    0.000000e+00  0.000000e+00
1.369462e+09    5.350124e-02  1.157125e-03   -2.839256e-01 -8.458480e-01    0.000000e+00  0.000000e+00    0.000000e+00  0.000000e+00
1.375594e+09    5.392621e-02 -6.463601e-04   -3.190577e-01 -8.324632e-01    0.000000e+00  0.000000e+00    0.000000e+00  0.000000e+00
1.381727e+09    5.418579e-02 -2.466817e-03   -3.536221e-01 -8.176012e-01    0.000000e+00  0.000000e+00    0.000000e+00  0.000000e+00
1.387860e+09    5.427233e-02 -4.292298e-03   -3.875622e-01 -8.012881e-01    0.000000e+00  0.000000e+00    0.000000e+00  0.000000e+00
1.393992e+09    5.417801e-02 -6.108946e-03   -4.208236e-01 -7.835511e-01    0.000000e+00  0.000000e+00    0.000000e+00  0.000000e+00
1.400125e+09    5.389515e-02 -7.900734e-03   -4.533538e-01 -7.644180e-01    0.000000e+00  0.000000e+00    0.000000e+00  0.000000e+00
1.406258e+09    5.341661e-02 -9.649251e-03   -4.851024e-01 -7.439169e-01    0.000000e+00  0.000000e+00    0.000000e+00  0.000000e+00
1.412390e+09    5.273630e-02 -1.133356e-02   -5.160204e-01 -7.220760e-01    0.000000e+00  0.000000e+00    0.000000e+00  0.000000e+00
1.418523e+09    5.184962e-02 -1.293015e-02   -5.460599e-01 -6.989233e-01    0.000000e+00  0.000000e+00    0.000000e+00  0.000000e+00
1.424656e+09    5.075404e-02 -1.441289e-02   -5.751737e-01 -6.744864e-01    0.000000e+00  0.000000e+00    0.000000e+00  0.000000e+00
1.430788e+09    4.944963e-02 -1.575321e-02   -6.033150e-01 -6.487927e-01    0.000000e+00  0.000000e+00    0.000000e+00  0.000000e+00
1.436921e+09    4.793966e-02 -1.692027e-02   -6.304367e-01 -6.218690e-01    0.000000e+00  0.000000e+00    0.000000e+00  0.000000e+00
1.443054e+09    4.623113e-02 -1.788126e-02   -6.564911e-01 -5.937423e-01    0.000000e+00  0.000000e+00    0.000000e+00  0.000000e+00
1.449186e+09    4.433529e-02 -1.860184e-02   -6.814294e-01 -5.644392e-01    0.000000e+00  0.000000e+00    0.000000e+00  0.000000e+00
1.455319e+09    4.226817e-02 -1.904661e-02   -7.052012e-01 -5.339870e-01    0.000000e+00  0.000000e+00    0.000000e+00  0.000000e+00
1.461452e+09    4.005095e-02 -1.917975e-02   -7.277543e-01 -5.024135e-01    0.000000e+00  0.000000e+00    0.000000e+00  0.000000e+00
1.467584e+09    3.771037e-02 -1.896568e-02   -7.490343e-01 -4.697479e-01    0.000000e+00  0.000000e+00    0.000000e+00  0.000000e+00